LAMMPS data file via write_data, version 22 Jul 2025, timestep = 1000, units = real

948 atoms
14 atom types
711 bonds
12 bond types
711 angles
16 angle types
0 dihedrals
12 dihedral types
0 impropers
4 improper types

-50 50 xlo xhi
-50 50 ylo yhi
-50 50 zlo zhi

Masses

1 12.011
2 12.011
3 12.011
4 1.008
5 1.008
6 14.007
7 65.38
8 1.008
9 15.035
10 15.9994
11 0.0001
12 15.999
13 1.00784
14 0.0001

Pair Coeffs # lj/cut/coul/long

1 0.086 3.4
2 0.086 3.4
3 0.1094 3.4
4 0.015 2.511
5 0.0157 2.65
6 0.17 3.25
7 0.0125 1.96
8 0.2195 3.6499
9 0.1791 3.1655
10 0 1
11 0.2108 3.637
12 0.1848 3.165
13 0 1
14 0 1

Bond Coeffs # harmonic

1 346.543 1.49
2 488 1.335
3 540.249 1.35
4 367 1.08
5 440.221 1.37
6 340 1.09
7 78.5 2.011
8 0 0.945
9 0 1.43
10 0 0.037
11 0 0.105
12 0 0.9572

Angle Coeffs # harmonic

1 48.088 109.32
2 71.254 105.27
3 48.68 128.33
4 49.451 125.67
5 76.75 108.65
6 32.477 126.4
7 66.015 123.92
8 49.954 125.68
9 35 109.5
10 75.484 112.16
11 35.24 109.48
12 0 108.5
13 0 127.53
14 0 123.97
15 0 52.26
16 0 104.52

Dihedral Coeffs # charmm

1 2.325 2 180 0
2 2.325 2 180 0
3 2.325 2 180 0
4 2.325 2 180 0
5 5 2 180 0
6 5 2 180 0
7 5 2 180 0
8 5 2 180 0
9 5.15 2 180 0
10 5.15 2 180 0
11 5.15 2 180 0
12 0 0 0 0

Improper Coeffs # harmonic

1 2 180
2 2 180
3 2 180
4 0 0

Atoms # full

482 121 9 0.1546 24.99136268865495 -49.04109046496689 48.13255980469316 0 0 -1
483 121 8 0.4998 26.333876204596553 -48.83395754713106 48.57747943390779 0 0 -1
484 121 11 -0.6544 24.971431462019016 -49.08241134885484 48.14312275806406 0 0 -1
481 121 10 0 24.49011411926793 -48.27055654884471 48.35176813591896 0 0 -1
325 82 12 0 29.536905823863957 -38.355045026168696 -47.05774218931516 0 0 0
326 82 14 -1.054 29.445578556187666 -38.344646051092376 -47.108498373430045 0 0 0
327 82 13 0.527 29.19547501154375 -37.5512596214659 -47.544931505373064 0 0 0
328 82 13 0.527 28.813583589211 -39.03759285668604 -47.16230161098734 0 0 0
409 103 12 0 -48.42466399526993 -31.59180298836 49.69890061769553 0 0 -1
410 103 14 -1.054 -48.37029926786096 -31.57930866452297 49.78785767002154 0 0 -1
411 103 13 0.527 -48.76198483387915 -31.264426437999223 -49.418467704547766 0 0 0
412 103 13 0.527 -47.45352328091798 -31.77351256443521 49.853388807690344 0 0 -1
639 160 8 0.4998 49.32189823678961 -24.27901656125465 -43.14277098664836 0 0 0
637 160 10 0 -48.994285390830385 -23.31490269921585 -43.19819586498625 1 0 0
638 160 9 0.1546 -49.673501857243295 -23.449225553002172 -42.55504158638214 1 0 0
640 160 11 -0.6544 -49.65899267085045 -23.460578606437778 -42.511719048627334 1 0 0
237 60 12 0 -9.75149222050656 -19.323560388665076 -43.09686569433658 0 0 0
238 60 14 -1.054 -9.720768449841861 -19.396874201526288 -43.165466820665046 0 0 0
239 60 13 0.527 -8.821103843576847 -19.64444728584244 -43.27408979024288 0 0 0
240 60 13 0.527 -10.323682297241659 -19.85741445107023 -43.71943908832345 0 0 0
757 190 10 0 48.947856933907275 -19.481411990814543 -46.96253665585892 0 0 0
758 190 9 0.1546 49.25220983595376 -18.58880068146735 -47.02286370286446 0 0 0
760 190 11 -0.6544 49.294079094904156 -18.58258631247328 -47.043469347700515 0 0 0
869 218 10 0 -4.892473291008842 -13.002749517458652 -44.348572927595875 0 0 0
870 218 9 0.1546 -4.714124589492082 -12.9699670539023 -43.42113444813072 0 0 0
872 218 11 -0.6544 -4.685702679401472 -12.935297991410499 -43.40676410925961 0 0 0
871 218 8 0.4998 -4.395502447334002 -14.294142385523624 -42.98726852368878 0 0 0
309 78 12 0 39.66901586393468 -12.559816525354814 46.01923510819484 0 0 -1
310 78 14 -1.054 39.70840157248495 -12.554344357633475 46.11641440535073 0 0 -1
311 78 13 0.527 39.34178817068124 -12.001727172277313 46.78176893472286 0 0 -1
312 78 13 0.527 40.45542842811315 -13.054108267800906 46.38968106262344 0 0 -1
751 188 8 0.4998 43.497321300179294 -14.376849455303068 47.74179148403928 0 0 0
925 232 10 0 -9.566534281272244 1.7410161064099194 -45.567165437875 0 0 0
926 232 9 0.1546 -9.220012236416505 2.612405239365015 -45.4504245904335 0 0 0
927 232 8 0.4998 -8.520889216465287 2.6445819638060994 -44.204073343983424 0 0 0
928 232 11 -0.6544 -9.19821018354371 2.631145720711323 -45.48770347180862 0 0 0
687 172 8 0.4998 12.10056314914477 -2.6583505233244193 -41.0528115732453 0 0 0
277 70 12 0 -43.58137866658121 6.840275808497509 -49.36959590923175 0 0 0
278 70 14 -1.054 -43.4876223215834 6.837227795840952 -49.322421116653544 0 0 0
280 70 13 0.527 -42.81864061430978 7.47714186573492 -49.48198672696448 0 0 0
943 236 8 0.4998 -46.032111700990804 6.863646697827306 48.19554752038098 0 0 -1
245 62 12 0 -34.14571726512249 7.863048178176688 -44.04583050184359 0 0 0
246 62 14 -1.054 -34.08985050204303 7.950025198772853 -44.0642399807647 0 0 0
247 62 13 0.527 -33.15100593128651 7.965232122514392 -44.035474336296424 0 0 0
248 62 13 0.527 -34.48909701397753 8.774898763729865 -44.2708155119694 0 0 0
851 213 8 0.4998 -12.040848172713755 3.2616033598560126 -48.105644796767 0 0 1
941 236 10 0 -47.650187034172 7.237542547422609 47.19063010252862 0 0 -1
942 236 9 0.1546 -47.376308601164325 6.573938316306432 47.80515843853243 0 0 -1
944 236 11 -0.6544 -47.40684790638877 6.563691203641143 47.83948913257162 0 0 -1
55 14 13 0.527 43.69919376343747 18.796447990283845 46.93573542529315 0 0 0
533 134 10 0 -27.659166311069846 19.00056621029536 -42.42434055011989 0 0 0
534 134 9 0.1546 -27.62456329769358 19.934493445177537 -42.28431396507037 0 0 0
535 134 8 0.4998 -26.30856970871197 20.381105542813884 -42.61882631195556 0 0 0
536 134 11 -0.6544 -27.660642962478335 19.959331635530656 -42.30156400637966 0 0 0
581 146 10 0 13.063450752550581 39.168535647055776 49.24428641698427 0 0 -1
582 146 9 0.1546 12.856600980975418 38.943234467399286 -49.86157848846549 0 0 0
583 146 8 0.4998 11.797512954622764 39.79869137639135 -49.42600296986822 0 0 0
584 146 11 -0.6544 12.852199699909677 38.897285332729965 -49.85232900178454 0 0 0
9 3 12 0 -23.873995294441098 -44.88613252337133 -39.31491000784044 0 0 0
10 3 14 -1.054 -23.829160627326395 -44.91338065550263 -39.223957317037744 0 0 0
11 3 13 0.527 -22.962540954940145 -45.27239782906893 -39.17331360613565 0 0 0
12 3 13 0.527 -24.26273786609155 -44.81754376486879 -38.396120390518384 0 0 0
220 55 13 0.527 24.39774850466019 47.02803384007239 -33.665354379471886 0 -1 0
803 201 8 0.4998 49.509489383276645 -48.74363884625692 -48.127286999022154 0 0 0
801 201 10 0 48.89214713213107 -47.10826605093851 -47.28332645557261 0 0 0
802 201 9 0.1546 49.67737835667244 -47.63255292687931 -47.24382711297834 0 0 0
804 201 11 -0.6544 49.71808141240215 -47.609046971056074 -47.246468479889835 0 0 0
385 97 12 0 3.611605045556013 -36.022173631170745 -41.053191372117695 0 0 0
386 97 14 -1.054 3.6254595671045795 -36.11208173489481 -41.00075488328508 0 0 0
387 97 13 0.527 3.878593337470794 -36.13786785448447 -40.096461738205825 0 0 0
388 97 13 0.527 3.506142242871679 -36.95468717056191 -41.39858294263216 0 0 0
265 67 12 0 -17.69045991533733 -31.830395367264853 -43.84764426937407 0 0 0
266 67 14 -1.054 -17.7022309838368 -31.876817346626456 -43.94108644083895 0 0 0
267 67 13 0.527 -17.877341537211922 -32.79521568608968 -44.03256709949715 0 0 0
268 67 13 0.527 -17.640812839288333 -31.406793793284635 -44.75213105081461 0 0 0
348 87 13 0.527 6.966352928389223 -25.390388263092355 -45.50063011291252 0 0 0
345 87 12 0 7.253280869774925 -25.07762678007749 -46.40608682131145 0 0 0
346 87 14 -1.054 7.307862168947209 -25.135988896623033 -46.33797120050851 0 0 0
347 87 13 0.527 8.176553125591308 -25.445289167561704 -46.51740661469654 0 0 0
252 63 13 0.527 -6.224261313161089 -16.433826930539855 -36.31735391318415 0 0 0
759 190 8 0.4998 49.05581624336711 -17.969947008694223 -45.74942357385916 0 0 0
249 63 12 0 -5.791899855060608 -15.903170565227198 -37.04637152615559 0 0 0
250 63 14 -1.054 -5.772751250535188 -16.002822935541207 -37.01939519731826 0 0 0
251 63 13 0.527 -5.13629155516326 -16.534327268005264 -37.460881292203894 0 0 0
172 43 13 0.527 -12.10286996457003 -9.014070342312852 -36.8511785386563 0 0 0
169 43 12 0 -11.10354025805918 -8.996039035104117 -36.88302723061767 0 0 0
170 43 14 -1.054 -11.165155142817785 -9.069309107436077 -36.83989822398707 0 0 0
171 43 13 0.527 -10.822556972143135 -9.83223763505452 -36.412049893987465 0 0 0
765 192 10 0 -42.229156960954136 5.089403368361596 -46.82218605845365 0 0 0
766 192 9 0.1546 -42.556139803486055 4.245708724811403 -46.54963013872965 0 0 0
768 192 11 -0.6544 -42.60265729395496 4.242713544669603 -46.54304182717865 0 0 0
685 172 10 0 10.25147009459733 -2.8686335493350805 -41.60459130672897 0 0 0
686 172 9 0.1546 10.79098560013377 -3.21298908498943 -40.90934506183899 0 0 0
688 172 11 -0.6544 10.77205752156667 -3.2123511121146677 -40.866245450542614 0 0 0
279 70 13 0.527 -43.25104388774542 6.167873555368339 -48.707211216304984 0 0 0
767 192 8 0.4998 -41.7178264156604 3.7687904279406688 -45.494651630025096 0 0 0
945 237 10 0 -4.466977375939122 10.26371764893491 -45.64090491720799 0 0 0
946 237 9 0.1546 -3.6759392744681305 10.132700619041607 -45.14078663166471 0 0 0
947 237 8 0.4998 -3.8684422931516127 8.989677884155483 -44.30434084615593 0 0 0
948 237 11 -0.6544 -3.6355944487678773 10.135020471793341 -45.16493528422394 0 0 0
681 171 10 0 -20.537960813610674 30.564543166906024 -41.07581122771803 0 0 0
682 171 9 0.1546 -20.547903321637214 29.928905978986027 -40.37660334646275 0 0 0
683 171 8 0.4998 -21.431811148668217 28.871488011142272 -40.75577889593178 0 0 0
684 171 11 -0.6544 -20.50589999435278 29.916546782518857 -40.35930552498827 0 0 0
477 120 10 0 -45.171994092761416 46.27285282078604 -46.75570569596897 0 0 0
478 120 9 0.1546 -44.78863803401991 46.724475105888715 -46.019431078777856 0 0 0
479 120 8 0.4998 -43.91772242456495 45.81128842514071 -45.34801751907296 0 0 0
480 120 11 -0.6544 -44.771891456939535 46.76761407378746 -46.02808174318773 0 0 0
5 2 12 0 6.754747503383972 46.63506921207198 -37.463291641065155 0 0 0
6 2 14 -1.054 6.775464324457657 46.62300025152413 -37.36106570205799 0 0 0
7 2 13 0.527 7.313507553392737 47.22304385545655 -36.87842203088663 0 0 0
8 2 13 0.527 6.437516907490303 45.9063865947545 -36.85634381005101 0 0 0
217 55 12 0 24.48841951741685 47.684469076388986 -34.41426758803772 0 -1 0
218 55 14 -1.054 24.490673911267113 47.5796527234949 -34.420052406485155 0 -1 0
219 55 13 0.527 24.6053742531344 47.11888762544056 -35.23062441330191 0 -1 0
144 36 13 0.527 10.626723001770488 -34.120632334268606 -35.03010276916423 0 0 0
338 85 14 -1.054 -17.516897810700666 -35.162500133101034 -29.133693135070708 0 0 0
339 85 13 0.527 -17.361631433925734 -34.463137753271354 -29.741370909278952 0 0 0
340 85 13 0.527 -18.391902964622126 -35.19947823170642 -28.793860313404664 0 0 0
141 36 12 0 11.308534525553288 -33.51537210319078 -34.61925917282219 0 0 0
142 36 14 -1.054 11.204437954177012 -33.51353911520437 -34.605637270662584 0 0 0
143 36 13 0.527 10.776720794004266 -32.8887419182996 -34.04960302098714 0 0 0
121 31 12 0 1.611565032098402 -21.97503644999743 -37.703028826317436 0 0 0
122 31 14 -1.054 1.608574556367006 -21.895608333455613 -37.771638087252164 0 0 0
124 31 13 0.527 2.236455383385567 -21.799470253671526 -38.46374413128896 0 0 0
577 145 10 0 -3.230220198474488 -25.57169295941365 -35.35174829644413 0 0 0
123 31 13 0.527 0.9518100932873478 -21.224577976559875 -37.74220518752588 0 0 0
578 145 9 0.1546 -2.4966837383415146 -24.98023785359423 -35.423372101987695 0 0 0
579 145 8 0.4998 -2.592775338936144 -24.310530976964387 -36.68252228557874 0 0 0
580 145 11 -0.6544 -2.4878324215193155 -24.953612026070516 -35.38557037715653 0 0 0
29 8 12 0 35.75051874719751 -22.697689811608907 -33.6881821379478 0 0 0
30 8 14 -1.054 35.80482657402193 -22.619131332363093 -33.73181962852922 0 0 0
31 8 13 0.527 36.23672576988731 -21.957614273964264 -33.22354218043197 0 0 0
32 8 13 0.527 35.897467890698216 -22.52187965935208 -34.661576248302836 0 0 0
665 167 10 0 -35.64689506000171 -17.383364181389428 -43.82416514294989 0 0 0
666 167 9 0.1546 -35.75217878764092 -16.463242496752 -43.63623880098716 0 0 0
667 167 8 0.4998 -34.87370736299714 -15.73499719309924 -44.4971376185714 0 0 0
668 167 11 -0.6544 -35.79651420987704 -16.447781547943684 -43.632836395381986 0 0 0
372 93 13 0.527 -42.02514638066835 -0.5649507108953407 -37.613182162917674 0 0 0
370 93 14 -1.054 -42.17151245241355 -1.4164378774872168 -37.98201044544514 0 0 0
369 93 12 0 -42.11686360984944 -1.5011195520444371 -37.95255670372516 0 0 0
371 93 13 0.527 -42.84571174285083 -1.4500135445269513 -38.6353216532357 0 0 0
517 130 10 0 35.6819416363837 -5.1685696253626565 -36.081685419687176 0 0 0
518 130 9 0.1546 35.65081970273256 -5.14486953235947 -35.137495468195226 0 0 0
519 130 8 0.4998 35.85007350226842 -3.791000791984978 -34.724533712673185 0 0 0
520 130 11 -0.6544 35.61534684819659 -5.16839714313317 -35.11738634697696 0 0 0
819 205 8 0.4998 28.99180120158608 18.91326270748364 -41.71758813400078 0 0 0
817 205 10 0 29.557598021628554 17.836627938534097 -40.204790464669564 0 0 0
818 205 9 0.1546 29.801023288524668 18.676389632386773 -40.56335634607348 0 0 0
820 205 11 -0.6544 29.80509983058071 18.711665224352295 -40.53244909902028 0 0 0
729 183 10 0 46.21867086334176 23.086218036071553 -35.94775124431595 0 0 0
730 183 9 0.1546 46.93552172579968 23.583585817936168 -35.58474277078367 0 0 0
731 183 8 0.4998 47.949240315766886 23.68993877508101 -36.58687232585804 0 0 0
732 183 11 -0.6544 46.92381601226003 23.62301925948803 -35.561846694470816 0 0 0
689 173 10 0 -28.38716634289154 35.673488029732525 -36.147247595710446 0 0 0
690 173 9 0.1546 -29.31862295569535 35.63408940167093 -35.99277618461621 0 0 0
692 173 11 -0.6544 -29.344127333195345 35.66911863348735 -36.01118070235885 0 0 0
898 225 9 0.1546 -33.847664814772905 44.2165097308062 -34.86390778910082 0 0 0
900 225 11 -0.6544 -33.88981490221454 44.23435955169089 -34.874907942600515 0 0 0
629 158 10 0 36.88371203975363 42.675753911490666 -34.604781952048754 0 0 0
630 158 9 0.1546 36.988364375632045 42.46138898318846 -35.519178216173664 0 0 0
632 158 11 -0.6544 37.032688703834395 42.45746518764499 -35.53454729118043 0 0 0
631 158 8 0.4998 36.11121636219709 43.30269086558254 -36.271522899996455 0 0 0
493 124 10 0 14.34864009705028 47.72208331977727 -30.144823780358692 0 -1 0
494 124 9 0.1546 14.346015670719007 48.342487609366955 -30.857646823622936 0 -1 0
496 124 11 -0.6544 14.32073824263718 48.38162455750517 -30.850893519899966 0 -1 0
891 223 8 0.4998 -25.60301810660171 -36.89929061333138 -32.2346250703898 0 0 0
889 223 10 0 -26.230505110699585 -35.4705482634301 -31.08016401281606 0 0 0
890 223 9 0.1546 -26.573188158432433 -36.30158857327792 -31.37165196825823 0 0 0
892 223 11 -0.6544 -26.592012308526968 -36.329015033754104 -31.338340012058442 0 0 0
337 85 12 0 -17.442380408764166 -35.23107950953746 -29.105961980328885 0 0 0
67 17 13 0.527 -22.971399645718233 -27.79448758840145 -28.216793093265007 0 0 0
189 48 12 0 5.742643610144723 -23.038060399420978 -34.501894714257766 0 0 0
190 48 14 -1.054 5.7280166813694064 -23.0166573864961 -34.60364419275598 0 0 0
191 48 13 0.527 6.433073444651501 -22.784767880305726 -35.179499996876245 0 0 0
192 48 13 0.527 4.881682882964754 -23.04182283485176 -35.01055165412357 0 0 0
931 233 8 0.4998 14.774620767557018 -16.037738253996178 -29.477584381553026 0 0 0
929 233 10 0 14.333995315417592 -16.390737052320695 -31.334750485914093 0 0 0
930 233 9 0.1546 14.10415942778603 -16.774815541161846 -30.502473937916687 0 0 0
932 233 11 -0.6544 14.058461022449897 -16.783987164650938 -30.495856662068647 0 0 0
49 13 12 0 43.78081069794332 -12.14638470210898 -35.60455174180909 0 0 0
50 13 14 -1.054 43.77704138677365 -12.069834444949509 -35.53278238859001 0 0 0
51 13 13 0.527 42.97822306872406 -11.636247899875764 -35.2953382098268 0 0 0
52 13 13 0.527 44.53945409172041 -11.764048192858752 -35.0770308028819 0 0 0
565 142 10 0 -0.9050841679221446 -10.691084704375948 -31.255142220908336 0 0 0
566 142 9 0.1546 -1.4859752944270652 -10.01047595233796 -31.559053895858273 0 0 0
567 142 8 0.4998 -2.8252817179668117 -10.407066428434128 -31.25545166132488 0 0 0
568 142 11 -0.6544 -1.4736824420502384 -9.966379753684492 -31.548069421751805 0 0 0
845 212 10 0 -32.589437585346346 -2.528217703127393 -31.661693442003266 0 0 0
329 83 12 0 6.601502366927154 23.8404201364773 -28.016517648453014 0 0 0
330 83 14 -1.054 6.583122443605747 23.786928776146645 -27.92805380246102 0 0 0
331 83 13 0.527 7.181014334035873 23.784424220250827 -27.203480330158182 0 0 0
332 83 13 0.527 5.80770570951661 23.27277804136883 -27.79818600711142 0 0 0
45 12 12 0 35.01561411955147 27.49820061973187 -35.49350271721843 0 0 0
46 12 14 -1.054 34.998011474100146 27.518082743645806 -35.39191613100015 0 0 0
47 12 13 0.527 35.030588053955476 28.385134879306033 -35.03185052046747 0 0 0
48 12 13 0.527 34.79541752035973 26.843066056273095 -34.770791503950356 0 0 0
132 33 13 0.527 -28.232212160769294 29.58435790213476 -33.02820813199202 0 0 0
129 33 12 0 -28.549528845307247 30.15316869883274 -33.78699914996249 0 0 0
130 33 14 -1.054 -28.553433423928286 30.04853895884101 -33.77910128649534 0 0 0
691 173 8 0.4998 -29.523079696162736 35.33801541558092 -34.609397077955805 0 0 0
365 92 12 0 -17.848824206922902 31.904019545638395 -28.66854945208951 0 0 0
366 92 14 -1.054 -17.887758044985045 31.94750170147276 -28.7558332338341 0 0 0
367 92 13 0.527 -18.537789634382094 32.625464575070616 -28.738141685715153 0 0 0
368 92 13 0.527 -17.613774935532675 31.68951769498657 -29.61656850203477 0 0 0
37 10 12 0 14.902795472548625 36.178233380580444 -32.88920900412261 0 0 0
38 10 14 -1.054 14.933527707630242 36.25754536869668 -32.827644839217385 0 0 0
39 10 13 0.527 15.75704568285537 36.69575891587329 -32.93843654585598 0 0 0
40 10 13 0.527 14.40684174895713 36.58537852830076 -32.12222650063202 0 0 0
97 25 12 0 27.02390652046213 28.668637475297366 -42.60626682109155 0 0 0
98 25 14 -1.054 27.036648440385836 28.76728845226111 -42.63989158029837 0 0 0
99 25 13 0.527 26.415933928731018 29.196487629018943 -43.19934599268677 0 0 0
100 25 13 0.527 27.78043303711089 29.290925121573107 -42.40520675761074 0 0 0
899 225 8 0.4998 -33.81317844167535 43.2042731786636 -33.8552514170434 0 0 0
821 206 10 0 13.297980663140235 39.00007358490979 -33.484898165939576 0 0 0
822 206 9 0.1546 12.376837068189289 39.015172143005245 -33.27444278582627 0 0 0
823 206 8 0.4998 11.998377762355519 37.70028396297499 -32.8608756733224 0 0 0
824 206 11 -0.6544 12.362343411761803 39.051058701240734 -33.247640947182376 0 0 0
897 225 10 0 -33.16911113418567 44.84466743607852 -34.66895208825451 0 0 0
285 72 12 0 43.94592670104735 39.78684196680376 -28.428141348389616 0 0 0
286 72 14 -1.054 44.027144269124065 39.74989353159532 -28.483490297952308 0 0 0
287 72 13 0.527 44.522949934332544 40.28515615645226 -29.075232172358316 0 0 0
288 72 13 0.527 44.31579165869033 38.85775851443155 -28.42634504201595 0 0 0
549 138 10 0 -49.68565922806643 49.6993955739276 -24.755330701846713 0 -1 0
550 138 9 0.1546 -48.805596296858866 49.4219479683049 -24.959136844436127 0 -1 0
551 138 8 0.4998 -48.80528944237747 47.99587067876463 -25.056622616532817 0 -1 0
552 138 11 -0.6544 -48.78383149205888 49.445765643456454 -24.99341892792479 0 -1 0
381 96 12 0 -20.799324073049725 -38.96621129114021 -22.281163001591715 0 0 0
382 96 14 -1.054 -20.78438187194929 -38.972466751659944 -22.384905978994574 0 0 0
383 96 13 0.527 -21.0523350035949 -38.29466759353446 -22.977592333163887 0 0 0
384 96 13 0.527 -20.37210814243411 -39.7106850385336 -22.794236943537495 0 0 0
495 124 8 0.4998 14.114758777160718 47.6198494293879 -32.069056771404036 0 -1 0
289 73 12 0 27.22085587704078 -42.36690443980391 -28.660573382293983 0 0 0
290 73 14 -1.054 27.12116804717417 -42.35611121975603 -28.691731968078237 0 0 0
291 73 13 0.527 26.4032832448604 -42.30955235424781 -28.087611667038438 0 0 0
292 73 13 0.527 26.876203357157202 -42.298422570789064 -29.596802146127168 0 0 0
741 186 10 0 -0.44262933538454735 -37.474798981552475 -29.11769997709628 0 0 0
742 186 9 0.1546 -0.46211057642891473 -38.10778265385232 -29.81911072014288 0 0 0
743 186 8 0.4998 -0.981718289233006 -37.45967380186645 -30.982366012905594 0 0 0
744 186 11 -0.6544 -0.4232201443869751 -38.13373306498895 -29.824620485806726 0 0 0
113 29 12 0 -13.43052215893169 -33.2090563578857 -29.32036288538101 0 0 0
114 29 14 -1.054 -13.504750190964797 -33.20196616278629 -29.246437654038896 0 0 0
115 29 13 0.527 -13.812105784681236 -33.9467365692191 -28.763387682134677 0 0 0
116 29 13 0.527 -13.914337053474668 -32.38871327448188 -29.015469904836433 0 0 0
301 76 12 0 -6.834341511324046 -18.48611667198429 -26.72268667588695 0 0 0
302 76 14 -1.054 -6.811661543240243 -18.588580225239184 -26.72612808757239 0 0 0
303 76 13 0.527 -6.1357099858676545 -18.976215649318288 -26.201422292540357 0 0 0
65 17 12 0 -22.530505550239006 -27.737702594186782 -29.112553916101344 0 0 0
66 17 14 -1.054 -22.578038704856525 -27.8208262858749 -29.069472029035705 0 0 0
68 17 13 0.527 -22.6437843367834 -28.650028025748973 -29.506037924184987 0 0 0
717 180 10 0 -18.55988566730353 -21.556970648523116 -32.150220849881656 0 0 0
718 180 9 0.1546 -19.20555279520466 -22.08530928412253 -31.706377108857026 0 0 0
720 180 11 -0.6544 -19.19813653996101 -22.092799162925957 -31.66049519983799 0 0 0
719 180 8 0.4998 -19.46940992156313 -23.231839672670734 -32.51819448630287 0 0 0
304 76 13 0.527 -7.268555056131956 -19.1906045778916 -27.2840731328569 0 0 0
853 214 10 0 -16.314292499022894 -15.805655988085206 -24.461376171515298 0 0 0
854 214 9 0.1546 -16.28797896541672 -15.290439695975847 -25.253136715704578 0 0 0
855 214 8 0.4998 -16.762879927500872 -16.107356626062703 -26.32566449313921 0 0 0
856 214 11 -0.6544 -16.305500766676566 -15.24685567474484 -25.250028395633308 0 0 0
846 212 9 0.1546 -32.429639478340576 -2.615261771480696 -30.734378592436098 0 0 0
847 212 8 0.4998 -32.30190586904739 -4.007910730988836 -30.438722086748825 0 0 0
848 212 11 -0.6544 -32.397153841950605 -2.586439475035382 -30.7162069788287 0 0 0
453 114 12 0 30.888544764126816 6.181686667949568 -23.700591524179586 0 0 0
454 114 14 -1.054 30.886314213902477 6.273361356274519 -23.75173614694865 0 0 0
456 114 13 0.527 30.38150912104969 6.406123850364341 -24.53278273688316 0 0 0
597 150 10 0 26.859251741582714 18.874751816438952 -22.954511927191508 0 0 0
598 150 9 0.1546 27.48132345089532 19.427996872651097 -22.507329940962947 0 0 0
599 150 8 0.4998 26.803632426708766 20.0635172479334 -21.4210294794616 0 0 0
600 150 11 -0.6544 27.52324205650157 19.408678766905222 -22.498062101897172 0 0 0
621 156 10 0 40.65942408644578 22.533222381931132 -31.258335453759678 0 0 0
622 156 9 0.1546 41.3335516278346 22.175054035566177 -31.81537446241963 0 0 0
623 156 8 0.4998 42.25677590235689 21.464153921631333 -30.98743839769885 0 0 0
624 156 11 -0.6544 41.31872482760851 22.1533691421526 -31.85444091516924 0 0 0
131 33 13 0.527 -28.912368702307543 29.50213778965915 -34.45371164075024 0 0 0
1 1 12 0 -12.45204343831194 36.184944952264004 -26.62945651936238 0 0 0
2 1 14 -1.054 -12.446136068594228 36.08173700770732 -26.647847123578742 0 0 0
3 1 13 0.527 -12.189193704115807 35.72877753355469 -27.4796451235275 0 0 0
4 1 13 0.527 -12.646021379686166 35.43784629258882 -25.993677175738256 0 0 0
754 189 9 0.1546 2.934514928209543 33.955655176094375 -17.29665638791131 0 0 0
756 189 11 -0.6544 2.9709107428758785 33.94454863544422 -17.26893932224176 0 0 0
401 101 12 0 -17.280701755862477 -48.6431104803651 -21.96237894059409 0 0 0
402 101 14 -1.054 -17.285485351252664 -48.73000045307347 -22.021134718097095 0 0 0
403 101 13 0.527 -17.347309264030564 -49.59059807564932 -21.64960116774486 0 0 0
404 101 13 0.527 -17.269864752373344 -48.70864331839282 -22.9601701886297 0 0 0
137 35 12 0 14.802022179125332 -36.43776041094067 -21.772139839762197 0 0 0
138 35 14 -1.054 14.75706299494145 -36.51345700455125 -21.7149235269652 0 0 0
139 35 13 0.527 15.086354391852556 -37.392881337219634 -21.689081106547818 0 0 0
140 35 13 0.527 13.99352687490744 -36.36515932777346 -21.188133106582995 0 0 0
472 118 13 0.527 -44.54608719305081 -30.15422851446503 -16.486045665135027 0 0 0
905 227 10 0 2.1761522683860726 -21.364229204357876 -17.39053671192752 0 0 0
906 227 9 0.1546 2.5589471126953387 -21.268005348116443 -18.24916013230926 0 0 0
907 227 8 0.4998 2.138665397619632 -22.378338649983156 -19.045227513511428 0 0 0
908 227 11 -0.6544 2.555647593867241 -21.22525167293104 -18.268589221025263 0 0 0
809 203 10 0 -48.36359135773808 -32.98995960019663 -21.66255591364312 1 0 0
810 203 9 0.1546 -47.990711189011584 -33.4695630558751 -20.938700995152654 1 0 0
811 203 8 0.4998 -48.01034836895309 -34.85879689958095 -21.274623437397665 1 0 0
812 203 11 -0.6544 -47.95062707572618 -33.45237637387511 -20.92097740970376 1 0 0
469 118 12 0 -44.01037916098015 -29.985269879822017 -17.313372304205124 0 0 0
470 118 14 -1.054 -44.11486054797824 -29.99064428338666 -17.304441352483835 0 0 0
471 118 13 0.527 -44.69278319726634 -29.878968932917516 -18.03657648481404 0 0 0
64 16 13 0.527 44.87654375782097 -16.67095301814762 -26.314597649940247 0 0 0
769 193 10 0 10.10439890076211 -17.357595894003193 -19.25729225952108 0 0 0
770 193 9 0.1546 9.43699504005939 -18.025692983563147 -19.292554116682638 0 0 0
771 193 8 0.4998 8.163459286718904 -17.376950731855185 -19.271573479038633 0 0 0
772 193 11 -0.6544 9.443279390395622 -18.059511430651014 -19.324695486077808 0 0 0
61 16 12 0 44.355938715123536 -17.350774852121166 -25.798059051922035 0 0 0
62 16 14 -1.054 44.386840689546105 -17.255640836985233 -25.766128120262543 0 0 0
63 16 13 0.527 44.195609945878296 -16.921462540535035 -24.909248108435154 0 0 0
733 184 10 0 18.875419622724387 -5.505709321429016 -22.996507031113097 0 0 0
734 184 9 0.1546 18.129114215044613 -5.97073075510879 -22.650373550402207 0 0 0
735 184 8 0.4998 17.151044472482607 -6.067720907481981 -23.68824274219143 0 0 0
736 184 11 -0.6544 18.138619794044807 -6.009971112542004 -22.626164394480845 0 0 0
455 114 13 0.527 31.36957527613313 7.026052718992906 -23.464678436390283 0 0 0
349 88 12 0 30.332311319176938 6.782832533731623 -27.227978760889613 0 0 0
350 88 14 -1.054 30.278310549978144 6.7401640581410955 -27.307277693165958 0 0 0
351 88 13 0.527 29.344246415448982 6.641672926033801 -27.28963156882385 0 0 0
352 88 13 0.527 30.69080000494834 6.426535035442414 -28.090844560963042 0 0 0
745 187 10 0 -47.72474385958162 17.32129772802981 -22.32327377188698 1 0 0
746 187 9 0.1546 -48.19378002489382 17.668957024528066 -23.066350534986366 1 0 0
748 187 11 -0.6544 -48.17179113992713 17.702695396971084 -23.090731979363152 1 0 0
747 187 8 0.4998 -49.53648170241453 17.93442663154452 -22.654187686468127 1 0 0
816 204 11 -0.6544 -45.57129397438749 38.283570132298095 -28.35743953718831 0 0 0
753 189 10 0 2.574924250700717 34.82201704281298 -17.18204091422117 0 0 0
755 189 8 0.4998 3.0910666686869006 33.726193630633816 -18.698811413241376 0 0 0
813 204 10 0 -45.40130503072747 37.59289910394622 -27.702928410201448 0 0 0
814 204 9 0.1546 -45.59415643637007 38.28541221182157 -28.316327949929796 0 0 0
815 204 8 0.4998 -45.55644499365329 39.52535755791396 -27.606177755882648 0 0 0
223 56 13 0.527 -48.29629648101381 -43.02201594566622 -11.709167340064923 0 0 0
221 56 12 0 -47.364629293194945 -43.22769202546722 -11.409679568181868 0 0 0
222 56 14 -1.054 -47.401677544201746 -43.13658750532215 -11.446454590746706 0 0 0
224 56 13 0.527 -46.86489498959853 -42.37121250915612 -11.538938669403732 0 0 0
149 38 12 0 -29.783799497676924 -41.300932948490704 -20.491418867977725 0 0 0
150 38 14 -1.054 -29.771575383259968 -41.35036060433034 -20.399590356471002 0 0 0
151 38 13 0.527 -29.456885085608054 -40.916449771567734 -19.628111846403577 0 0 0
152 38 13 0.527 -29.96819760679398 -42.26167624440862 -20.28412912232491 0 0 0
761 191 10 0 22.746492301539753 -36.927941060197895 -5.79386377451976 0 0 0
893 224 10 0 -46.74191885125095 -28.249910196812273 -19.43083741582026 0 0 0
894 224 9 0.1546 -46.27463046915058 -28.730298923682117 -20.09709059277871 0 0 0
896 224 11 -0.6544 -46.24491575712612 -28.705232216484898 -20.123641429855763 0 0 0
895 224 8 0.4998 -47.21485289449619 -29.56171686806141 -20.78114170445309 0 0 0
489 123 10 0 17.143130347246732 -27.99011252135128 -11.917974834977812 0 0 0
490 123 9 0.1546 16.36492943777861 -28.425953609338542 -12.23017795692794 0 0 0
491 123 8 0.4998 15.25317003715849 -27.93291585972906 -11.479108715924099 0 0 0
492 123 11 -0.6544 16.35986932369943 -28.42824918320494 -12.27692591240013 0 0 0
457 115 12 0 -41.319993770054516 -27.679555539078876 -17.349525782893487 0 0 0
458 115 14 -1.054 -41.34808883871458 -27.759539904561635 -17.411478725060807 0 0 0
459 115 13 0.527 -42.215833540862164 -27.850774526466676 -17.75959227326095 0 0 0
460 115 13 0.527 -40.75170411308039 -28.44084627038113 -17.661747767981407 0 0 0
225 57 12 0 43.47807782370912 -16.321571245938067 -13.54150001636419 0 0 0
226 57 14 -1.054 43.48668304868364 -16.37138366242606 -13.63353083330148 0 0 0
227 57 13 0.527 43.39162199924779 -15.932360151865256 -14.458582032648899 0 0 0
228 57 13 0.527 43.66485926179599 -17.291527690350488 -13.697373640269221 0 0 0
641 161 10 0 -27.58419796491525 -16.249582082455948 -19.47296157705 0 0 0
642 161 9 0.1546 -26.96830699258762 -16.32323905379617 -18.760025438997708 0 0 0
643 161 8 0.4998 -26.552961966896653 -15.003932025093475 -18.39930726570802 0 0 0
644 161 11 -0.6544 -26.98062376308387 -16.35215206413948 -18.72497418297998 0 0 0
913 229 10 0 -12.394222129278809 -3.8456975987914377 -12.47589272221218 0 0 0
914 229 9 0.1546 -11.994095933378457 -3.455399794056114 -13.237858366770528 0 0 0
915 229 8 0.4998 -11.618941878895265 -2.117773246160285 -12.901384450841297 0 0 0
916 229 11 -0.6544 -11.962004695492396 -3.481692279138602 -13.260109396805507 0 0 0
393 99 12 0 35.4336604036057 -10.609812303433959 -11.349373029561852 0 0 0
394 99 14 -1.054 35.473324015106144 -10.540420488361537 -11.417465399786689 0 0 0
395 99 13 0.527 36.396833866905126 -10.432722842529442 -11.551698396725584 0 0 0