LAMMPS data file via write_data, version 10 Sep 2025, timestep = 200, units = real

6 atoms
11 atom types
5 bonds
10 bond types
7 angles
14 angle types
3 dihedrals
15 dihedral types
0 impropers
7 improper types

-12 12 xlo xhi
-12 12 ylo yhi
-12 12 zlo zhi

Masses

1 12.011
2 12.011
3 12.011
4 1.008
5 1.008
6 14.007
7 65.38
8 1.008
9 1.008
10 12.011
11 15.9994

Atoms # full

1 1 8 0.418 -5.7988836237749615 8.854583013112315 -5.52042055957615 0 0 0
2 1 11 -0.6830000000000001 -4.862173716901324 8.57026848330082 -5.344598362458874 0 0 0
3 1 10 0.145 -4.458770451413864 7.759091888479406 -6.34916982491416 0 0 0
4 1 9 0.04 -4.7226861708672345 6.696839761203846 -6.307095167426307 0 0 0
5 1 9 0.04 -4.9480032504617055 8.116392339590968 -7.238005666294101 0 0 0
6 1 9 0.04 -3.427237056725278 7.762289702421727 -6.604870231715277 0 0 0

Velocities

1 -0.01369702208109347 0.00589621912388837 -0.0052535491541855946
2 -0.0012280847048478786 0.0015856655353858567 0.0029503871792474702
3 0.003960314840666441 0.0003912196443072637 -0.0016026122836897663
4 -0.0020971755636252495 -0.0017123707413413474 -0.013384186687864553
5 -0.01028965980227693 -0.013422760808185486 0.002480182028512786
6 -0.0016132885098509976 -0.020591083918237836 -0.011576026043857502

Bonds

1 10 1 2
2 9 2 3
3 8 3 4
4 8 3 5
5 8 3 6

Angles

1 12 1 2 3
2 13 2 3 4
3 13 2 3 5
4 13 2 3 6
5 14 4 3 5
6 14 4 3 6
7 14 5 3 6

Dihedrals

1 15 1 2 3 4
2 15 1 2 3 5
3 15 1 2 3 6
