LAMMPS data file via write_data, version 10 Sep 2025, timestep = 0, units = real

6 atoms
4 atom types
5 bonds
3 bond types
7 angles
3 angle types
3 dihedrals
1 dihedral types

-12 12 xlo xhi
-12 12 ylo yhi
-12 12 zlo zhi

Masses

1 1.008
2 1.008
3 12.011
4 15.9994

Atoms # full

1 1 1 0.418 -11.817613617657141 11.415945523582009 -9.590730127522027 0 0 0
2 1 4 -0.6830000000000001 -10.8488224088248 11.426219641005558 -9.640037897704197 0 0 0
3 1 3 0.145 -10.469463594744905 10.563156642547666 -10.709393423650909 0 0 0
4 1 2 0.04 -10.772637008198707 9.520904709437932 -10.531254491062342 0 0 0
5 1 2 0.04 -10.882884615275039 10.886386917703517 -11.675770006048523 0 0 0
6 1 2 0.04 -9.378007599383169 10.596804049869588 -10.773158007625359 0 0 0

Velocities

1 0 0 0
2 0 0 0
3 0 0 0
4 0 0 0
5 0 0 0
6 0 0 0

Bonds

1 3 1 2
2 2 2 3
3 1 3 4
4 1 3 5
5 1 3 6

Angles

1 1 1 2 3
2 2 2 3 4
3 2 2 3 5
4 2 2 3 6
5 3 4 3 5
6 3 4 3 6
7 3 5 3 6

Dihedrals

1 1 1 2 3 4
2 1 1 2 3 5
3 1 1 2 3 6
