LAMMPS data file via write_data, version 7 Feb 2024, timestep = 5000, units = real

2258 atoms
14 atom types
2536 bonds
12 bond types
4658 angles
16 angle types
7311 dihedrals
15 dihedral types
2112 impropers
7 improper types

0.18127294852838816 33.84272913147163 xlo xhi
0.16854340935164913 33.85545867064833 ylo yhi
0.1575655268869376 33.866436553112905 zlo zhi

Masses

1 12.011
2 12.011
3 12.011
4 1.008
5 1.008
6 14.007
7 65.38
8 1.008
9 1.008
10 12.011
11 15.9994
12 15.999
13 1.00784
14 0.0001

Pair Coeffs # lj/cut/coul/long

1 0.086 3.4
2 0.086 3.4
3 0.1094 3.4
4 0.015 2.511
5 0.0157 2.65
6 0.17 3.25
7 0.0125 1.96
8 0 1
9 0.03 2.5
10 0.066 3.5
11 0.17 3.12
12 0.1848 3.165
13 0 1
14 0 1

Bond Coeffs # harmonic

1 346.543 1.49
2 488 1.335
3 540.249 1.35
4 367 1.08
5 440.221 1.37
6 340 1.09
7 78.5 2.011
8 340 1.09
9 320 1.41
10 553 0.945
11 0 0.9572
12 0 0.105

Angle Coeffs # harmonic

1 48.088 109.32
2 71.254 105.27
3 48.68 128.33
4 49.451 125.67
5 76.75 108.65
6 32.477 126.4
7 66.015 123.92
8 49.954 125.68
9 35 109.5
10 75.484 112.16
11 35.24 109.48
12 55 108.6
13 35 109.5
14 33 107.8
15 0 104.52
16 0 52.26

Improper Coeffs # harmonic

1 0 0
2 2 180
3 2 180
4 2 180
5 0 0
6 0 0
7 2 180

Atoms # full

948 1 1 0.43374348 2.3826049517717456 2.188071884867651 8.56431246188761 0 0 0
953 1 3 -0.60255652 1.9250307198234902 1.8695469011518755 7.215232671160336 0 0 0
954 1 5 0.15704348 1.641730715747386 2.7867203422201983 6.625735047923619 0 0 0
955 1 5 0.15704348 1.1251313650850787 1.1734330345413735 7.2230614002384055 0 0 0
956 1 5 0.15704348 2.7602575220255527 1.4971866102770752 6.617503239982016 0 0 0
1026 1 3 -0.60255652 1.9435538175053262 7.199148747616316 1.8108181173336055 0 0 0
1027 1 5 0.15704348 2.4609856423719907 6.598092842598769 2.507269570709286 0 0 0
1028 1 5 0.15704348 2.2445966869970007 6.9625332083983 0.7571051821339139 0 0 0
1029 1 5 0.15704348 0.927625160112498 6.976059559653878 1.90243700195718 0 0 0
1046 1 2 -0.19255652 2.398083018564426 5.512531526769174 6.541327938393837 0 0 0
1048 1 2 -0.19255652 2.404140960308921 6.518743139168288 5.662058318092115 0 0 0
1058 1 4 0.15834348 3.2625173762353645 4.9871543654242645 7.014062191978399 0 0 0
1060 1 4 0.15834348 3.3116113562837493 6.878468943653677 5.020381113528334 0 0 0
1094 1 6 -0.30095652 1.0996232251465865 5.5221488015149 7.137744879530454 0 0 0
1096 1 6 -0.30095652 1.105412632095431 7.030263776279865 5.557317781611172 0 0 0
1580 1 3 -0.60255652 7.087253514812601 1.905913130464424 1.3066857527740225 0 0 0
1581 1 5 0.15704348 6.378726216690067 2.5929959881990707 1.7384682980805803 0 0 0
1582 1 5 0.15704348 6.888697068334542 0.8370705294004585 1.4274406763919703 0 0 0
1583 1 5 0.15704348 7.240295639638876 2.1747836604066255 0.2839894645256119 0 0 0
1598 1 2 -0.19255652 6.370104731840901 1.8444864469266735 4.975215213657988 0 0 0
1600 1 2 -0.19255652 5.502882018051158 1.94019916457642 6.0266654242775015 0 0 0
1610 1 4 0.15834348 6.497779296037741 2.54666076794118 4.175921499846938 0 0 0
1612 1 4 0.15834348 4.760313841554919 2.6958275755364833 6.087099475410185 0 0 0
1646 1 6 -0.30095652 7.094839738718481 0.7507464175612837 5.226424066248026 0 0 0
1648 1 6 -0.30095652 5.588525798221888 0.8255296692262277 6.83955251095008 0 0 0
1874 1 2 -0.19255652 5.397502469310263 6.3009085541200145 1.508786919201643 0 0 0
1876 1 2 -0.19255652 6.36677047600497 5.332885495202817 1.4810340629376564 0 0 0
1886 1 4 0.15834348 4.695396222953638 6.459287745921126 2.2934160988868806 0 0 0
1888 1 4 0.15834348 6.577658954828834 4.68949061318585 2.314325164647696 0 0 0
1922 1 6 -0.30095652 5.561160544961729 7.105004331219183 0.47589344581656 0 0 0
1924 1 6 -0.30095652 7.112468496514206 5.505288168643871 0.332090693963244 0 0 0
2211 2 10 0.145 2.582103974461316 33.28051028472256 2.7664241596024812 0 0 0
2212 2 9 0.04 2.5239738258786137 32.71961938841947 1.7803523790016538 0 0 0
946 1 7 0.73604348 0.4699687187426677 4.343810968496904 8.566240568473214 0 0 0
1040 1 1 0.43374348 0.43140021517908406 6.53196434282855 6.5645749489304706 0 0 0
1021 1 1 0.43374348 2.335960911013539 8.628737922095263 2.1032836326707662 0 0 0
2209 2 8 0.418 4.040601511732066 0.8023411744076963 2.629465750876869 0 1 0
2213 2 9 0.04 3.190385145995366 32.67566826894211 3.454448143759891 0 0 0
947 1 7 0.73604348 4.490428666598138 33.79712426980505 8.40331449032596 0 -1 0
1660 1 7 0.73604348 4.496377842384374 8.641221169116065 33.76986005078709 0 0 -1
1575 1 1 0.43374348 8.384775473091386 2.270417612255327 1.867164753161251 0 0 0
1576 1 2 -0.19255652 10.267242670029118 3.232269576104495 1.9781394950190336 0 0 0
1577 1 2 -0.19255652 10.264043243495475 2.2837205243275145 2.853655504905861 0 0 0
1578 1 4 0.15834348 11.128006329370686 3.907066221905817 1.9001280498617437 0 0 0
1579 1 4 0.15834348 11.092508853965239 2.0594311949719746 3.4914316047771043 0 0 0
1584 1 6 -0.30095652 9.10271560925286 3.162589113955426 1.2395040064499787 0 0 0
1585 1 6 -0.30095652 9.074145105571974 1.622162495431005 2.8407539604682124 0 0 0
1602 1 2 -0.19255652 14.166623187626 2.6297394660036093 6.503663061011241 0 0 0
1607 1 2 -0.19255652 15.1085956482864 3.614588532508077 6.586427889504802 0 0 0
1614 1 4 0.15834348 13.505617566736717 2.3635893927853653 5.681710603787955 0 0 0
1619 1 4 0.15834348 15.379415817476824 4.339007883348735 5.767948298948017 0 0 0
1622 1 3 -0.60255652 10.247721592717232 1.529339727644167 6.741542686192806 0 0 0
1627 1 5 0.15704348 9.962520792813207 2.17055212237093 5.921169560529851 0 0 0
1630 1 5 0.15704348 11.086225396041256 1.9296855936245236 7.288795533507907 0 0 0
1639 1 5 0.15704348 9.396690319624359 1.6026612819525001 7.424414261285408 0 0 0
1650 1 6 -0.30095652 14.083880707434378 1.9021024247361527 7.650698786105314 0 0 0
1655 1 6 -0.30095652 15.713506613957517 3.4881314403417387 7.813819536309626 0 0 0
1877 1 2 -0.19255652 14.774074507904048 6.949722488852837 3.3741351039167973 0 0 0
1884 1 2 -0.19255652 14.003979957754185 6.8289809455834645 2.311205187601288 0 0 0
1889 1 4 0.15834348 14.91183457952357 6.1243219102270405 4.081940376169712 0 0 0
1896 1 4 0.15834348 13.366025283329408 6.0002324840571974 2.117375491157757 0 0 0
1897 1 3 -0.60255652 10.500128207300111 6.970615789402852 1.4416030343320867 0 0 0
1904 1 5 0.15704348 11.3817511613141 7.30417232731808 1.9689440304809727 0 0 0
1905 1 5 0.15704348 9.989829652030627 6.144926826366019 1.9755133732655983 0 0 0
1916 1 5 0.15704348 9.87100303459791 7.826013433321096 1.3861612316317475 0 0 0
1925 1 6 -0.30095652 15.607153288101456 8.03652225269089 3.2628321240468856 0 0 0
1932 1 6 -0.30095652 14.151146539558576 8.033141563860202 1.6029720472936133 0 0 0
2076 1 3 -0.60255652 15.790752013960345 7.073366119244668 6.9885513023224455 0 0 0
2098 1 5 0.15704348 14.99873024701738 6.351308065717889 6.636897539516902 0 0 0
2102 1 5 0.15704348 15.575962066843635 7.99716405237593 6.439751317430554 0 0 0
2146 1 5 0.15704348 15.811013792463529 7.310223780109875 8.027300216930595 0 0 0
1592 1 1 0.43374348 10.585372456586436 33.84354177168986 6.249461236197843 0 -1 0
1673 1 1 0.43374348 10.760462846643572 6.599733990106146 33.72462207426706 0 0 -1
1594 1 1 0.43374348 15.154095977954288 2.396462680555009 8.340059848402154 0 0 0
1589 1 7 0.73604348 12.884333499102617 0.29521630420788825 8.110327870532078 0 0 0
1956 1 1 0.43374348 17.12598935933718 6.606125457605511 6.532073974277997 -1 0 0
343 1 3 -0.60255652 24.016016633731642 1.6168578298148726 1.9539939193934617 -1 0 0
344 1 5 0.15704348 23.799175105757904 0.8599163052181652 2.6395356154143967 -1 0 0
345 1 5 0.15704348 24.007538141882133 1.2499965444770977 0.958644931994692 -1 0 0
346 1 5 0.15704348 23.330847373659925 2.513679589786256 2.2138517321566398 -1 0 0
358 1 2 -0.19255652 23.442737202548734 1.9503923272518655 5.506402024007702 -1 0 0
360 1 2 -0.19255652 22.559256508304586 2.0740560678112328 6.529539605243452 -1 0 0
368 1 4 0.15834348 23.693665261437793 2.755876338297628 4.740549204232572 -1 0 0
370 1 4 0.15834348 22.0213024869493 2.954803436059793 6.831481809325652 -1 0 0
398 1 6 -0.30095652 24.036189360407032 0.721882646636658 5.568972224141882 -1 0 0
400 1 6 -0.30095652 22.352110526400445 0.7572972357946709 7.031112815730676 -1 0 0
561 1 2 -0.19255652 22.38452220999703 6.360269435384118 1.9331574240505345 -1 0 0
563 1 2 -0.19255652 23.2845843278833 5.384292005151848 1.981940477915079 -1 0 0
571 1 4 0.15834348 21.74153100519391 6.52553971696305 2.7700419180590408 -1 0 0
573 1 4 0.15834348 23.318181313327667 4.751757404881507 2.831603867587039 -1 0 0
601 1 6 -0.30095652 22.444890686228764 7.033617070929028 0.7818531276306063 -1 0 0
603 1 6 -0.30095652 23.952194170582043 5.394825479005551 0.7947859229883227 -1 0 0
1623 1 3 -0.60255652 18.77156130120713 1.89450780340922 7.166022792697428 -1 0 0
1632 1 5 0.15704348 18.751386453213158 2.7053671115735574 6.4594764532108115 -1 0 0
1638 1 5 0.15704348 17.77144051843662 1.5036981225041848 7.276259354622936 -1 0 0
1642 1 5 0.15704348 19.487907470811155 1.175691271098662 6.76019170957525 -1 0 0
1870 1 1 0.43374348 19.242801703118836 8.403242875575248 2.30356297171727 -1 0 0
1900 1 3 -0.60255652 18.742447805262447 7.1403022774965885 1.6779949028980516 -1 0 0
1908 1 5 0.15704348 19.511330019644603 6.38592029254432 1.7838296441123664 -1 0 0
1914 1 5 0.15704348 18.63984068840876 7.353320802077125 0.6571107682824301 -1 0 0
1918 1 5 0.15704348 17.85407485274573 6.728664338688411 2.139472884148937 -1 0 0
1980 1 2 -0.19255652 19.03536035955706 5.713272337038425 6.504306000498833 -1 0 0
1984 1 2 -0.19255652 19.014162534857615 6.673412710954882 5.542086240093993 -1 0 0
2028 1 4 0.15834348 19.899420264282817 5.0918375720040805 6.725071719521524 -1 0 0
2032 1 4 0.15834348 19.83995525538056 6.89138471666432 4.916612032448915 -1 0 0
2172 1 6 -0.30095652 17.831538699494963 5.637730033519011 7.152216974122945 -1 0 0
2176 1 6 -0.30095652 17.75182445252399 7.208216016530992 5.556115646058375 -1 0 0
1940 1 7 0.73604348 17.15085551451154 8.610760619658569 4.486860623785617 -1 0 0
2245 8 13 0.527 21.521150444172974 33.682724625282034 3.3833062797893976 0 0 0
2246 8 13 0.527 21.832772921075126 0.8900702637472955 4.650041377739519 0 1 0
1590 1 7 0.73604348 21.153914464111043 0.17607052145252994 8.533157086990549 -1 0 0
338 1 1 0.43374348 25.420096929496957 2.1202392549983173 2.2587953409931347 -1 0 0
339 1 2 -0.19255652 27.31737512801918 3.18780590965993 2.2055340458084856 -1 0 0
340 1 2 -0.19255652 27.41120228775976 2.1924681198852505 3.0968014701304 -1 0 0
341 1 4 0.15834348 28.103288642478716 3.8945636243882844 2.017310104546177 -1 0 0
342 1 4 0.15834348 28.283378810071245 2.1106178247524463 3.7115805686928742 -1 0 0
347 1 6 -0.30095652 26.09578125503123 3.071015987097613 1.5621465464071898 -1 0 0
348 1 6 -0.30095652 26.207887127894654 1.4994401461266473 3.1693607443289564 -1 0 0
353 1 1 0.43374348 27.643847479750647 0.3041815741298606 6.450386210450964 -1 0 0
354 1 1 0.43374348 31.98588572694387 2.3315557211585385 8.595153053320002 -1 0 0
361 1 2 -0.19255652 31.054735788603523 2.1664870529362346 6.7599934791326195 -1 0 0
366 1 2 -0.19255652 32.07980269702641 3.082614355486795 6.6338971798264 -1 0 0
371 1 4 0.15834348 30.345367010810193 1.9004869449096589 5.990958233957579 -1 0 0
376 1 4 0.15834348 32.454810458060415 3.627478977709531 5.746091990255433 -1 0 0
378 1 3 -0.60255652 27.125541189957623 1.6069416375806005 6.925700793110743 -1 0 0
382 1 5 0.15704348 27.823923697530976 2.0601659380680406 7.622545472416496 -1 0 0
385 1 5 0.15704348 26.193612219736863 1.5319097994240565 7.454426036609764 -1 0 0
392 1 5 0.15704348 27.05934113139187 2.131804250105178 5.963116925663649 -1 0 0
401 1 6 -0.30095652 30.98801217709729 1.7094718257921624 8.005104375073792 -1 0 0
406 1 6 -0.30095652 32.57489048592381 3.256016875480256 7.880041307121989 -1 0 0
564 1 2 -0.19255652 31.77809737342954 6.646350894321543 3.326689957173331 -1 0 0
569 1 2 -0.19255652 30.853508578209333 6.599817133854598 2.3498129870798716 -1 0 0
574 1 4 0.15834348 31.95323235403234 5.863397027787712 3.989184284849867 -1 0 0
579 1 4 0.15834348 30.324747414045 5.718671517490056 2.0943257095057595 -1 0 0
580 1 3 -0.60255652 27.089645708183077 6.774304230720503 1.6580954130489294 -1 0 0
586 1 5 0.15704348 27.90678839905861 7.2994260490293525 2.0187739980064583 -1 0 0
587 1 5 0.15704348 26.706051530465096 5.914828548539529 2.190966176073183 -1 0 0
596 1 5 0.15704348 26.305923703912637 7.381757908340678 1.5260642748755815 -1 0 0
604 1 6 -0.30095652 32.3537201447355 7.907711980112054 3.317721320964493 -1 0 0
609 1 6 -0.30095652 30.76477925851472 7.82993443939876 1.7220863488789497 -1 0 0
714 1 3 -0.60255652 32.757431672349284 7.002293951024764 6.999516697355101 -1 0 0
731 1 5 0.15704348 32.19007051724539 6.145223564992491 7.455804220564965 -1 0 0
733 1 5 0.15704348 32.22746224984973 7.226164326011773 6.125584891551342 -1 0 0
767 1 5 0.15704348 32.88528417506867 7.790123816420355 7.806431810276121 -1 0 0
351 1 7 0.73604348 29.86967691143795 0.2536203858539191 8.521700670136402 -1 0 0
557 1 1 0.43374348 31.755040181059286 8.520748398656817 2.2993523088116805 -1 0 0
1035 1 7 0.73604348 0.28283524587859876 8.499956883557092 4.404015279717644 0 0 0
1022 1 2 -0.19255652 2.352925880522916 10.474365881110348 3.225081434691009 0 0 0
1023 1 2 -0.19255652 3.339964902854601 10.458514721079146 2.3286508014311234 0 0 0
1024 1 4 0.15834348 2.0981750961198555 11.261326218535302 3.927680037921461 0 0 0
1025 1 4 0.15834348 4.050652797834006 11.30075166897386 2.237531260006026 0 0 0
1030 1 6 -0.30095652 1.7234362149033056 9.255584647331903 3.1313236482052167 0 0 0
1031 1 6 -0.30095652 3.3599808957098074 9.321892943099652 1.5435024650421871 0 0 0
1037 1 1 0.43374348 0.5013852561169523 10.548944270537 6.406133255632933 0 0 0
1051 1 2 -0.19255652 3.3905337191220783 14.957605380668372 6.604488408226873 0 0 0
1054 1 2 -0.19255652 2.5372260230101316 13.887167393356778 6.73146654611297 0 0 0
1063 1 4 0.15834348 3.999401940972761 15.169365376809937 5.702111049745016 0 0 0
1066 1 4 0.15834348 2.390238789539196 13.165601148672703 5.9413539160681905 0 0 0
1069 1 3 -0.60255652 1.908686370726293 10.238656531790951 6.721477612581463 0 0 0
1076 1 5 0.15704348 2.308125259368366 9.447409781153999 6.124282712161271 0 0 0
1077 1 5 0.15704348 2.008080751735128 9.979846087352673 7.761274049682928 0 0 0
1088 1 5 0.15704348 2.606013488317684 11.083438425922102 6.433822163689394 0 0 0
1099 1 6 -0.30095652 3.373805688254063 15.615824068970248 7.81313158016788 0 0 0
1102 1 6 -0.30095652 1.9326636295811195 13.950889925986168 7.964524731370615 0 0 0
1880 1 2 -0.19255652 7.097581979409064 13.823734347847758 2.431719283205109 0 0 0
1881 1 2 -0.19255652 7.014586462408016 14.861659427494624 3.263290652317237 0 0 0
1892 1 4 0.15834348 6.278980729170475 13.124816981692176 2.3056619546675385 0 0 0
1893 1 4 0.15834348 6.147268229162206 15.095776894991227 3.9173439870436177 0 0 0
1898 1 3 -0.60255652 7.163783431903652 10.3672564758209 1.5174430962281584 0 0 0
1903 1 5 0.15704348 7.164268614544458 9.321052435296115 1.675572548563123 0 0 0
1906 1 5 0.15704348 6.315903363522906 10.70504509656823 2.076930967361567 0 0 0
1915 1 5 0.15704348 8.089918383230271 10.88853014869084 1.8237279753980176 0 0 0
1928 1 6 -0.30095652 8.225768014200609 13.900774794004038 1.6738135943788377 0 0 0
1929 1 6 -0.30095652 8.255216021361752 15.469171114441052 3.2237308693186613 0 0 0
2068 1 3 -0.60255652 6.938313651625309 15.696680262449826 6.743299100047836 0 0 0
2090 1 5 0.15704348 7.706704092412401 15.264583391225235 6.103659535407643 0 0 0
2110 1 5 0.15704348 6.103540181910501 15.018307446071315 6.66030937678674 0 0 0
2138 1 5 0.15704348 7.309639440527778 15.87917658776449 7.749197879444048 0 0 0
1032 1 7 0.73604348 0.5302550431785211 12.717505166048065 8.58357409149598 0 0 0
1043 1 1 0.43374348 2.5116829072272697 14.955343499317465 8.61737901799154 0 0 0
1948 1 1 0.43374348 6.577394206436286 17.06392620926643 6.27094610013577 0 -1 0
1675 1 1 0.43374348 6.859249985620175 10.620983971884362 33.846615832098784 0 0 -1
1869 1 1 0.43374348 15.177861565208902 8.624066228174552 2.1389775248277174 0 0 0
1872 1 1 0.43374348 8.95020588223964 14.877273651959621 2.253069104681293 0 0 0
1873 1 2 -0.19255652 12.245319122956287 10.78149844307833 1.7347463971194712 0 0 0
1875 1 2 -0.19255652 11.255530585700757 11.708287311305662 1.7834931067154074 0 0 0
1885 1 4 0.15834348 12.923974588268948 10.747793805950009 2.5520897172104244 0 0 0
1887 1 4 0.15834348 11.08090237303629 12.409566466462195 2.6033834762587715 0 0 0
1899 1 3 -0.60255652 15.744388915845843 9.900046966314774 1.5709965705288595 0 0 0
1902 1 3 -0.60255652 10.31036122375342 15.288168114922929 1.7717077657292761 0 0 0
1907 1 5 0.15704348 16.123660424580343 10.537464008364008 2.3507466582647742 0 0 0
1909 1 5 0.15704348 10.425969348531634 16.22963108163585 2.2128539417494215 0 0 0
1911 1 5 0.15704348 10.341986661095838 15.25834722002183 0.6737277175544683 0 0 0
1913 1 5 0.15704348 15.014046826861037 10.489459954620814 1.0328524630541402 0 0 0
1917 1 5 0.15704348 16.575740866621896 9.636767379416941 0.9135539838322269 0 0 0
1919 1 5 0.15704348 11.00859585847245 14.523215530913891 2.085411140196949 0 0 0
1921 1 6 -0.30095652 12.105239221880845 10.12786489922755 0.5517272166754675 0 0 0
1923 1 6 -0.30095652 10.548695476940454 11.68219949609758 0.6425518149243195 0 0 0
1964 1 1 0.43374348 15.172202438290052 15.223902711461454 8.605598971534455 0 0 0
1971 1 2 -0.19255652 11.129026984438442 15.575280533786094 5.365621057210848 0 0 0
1977 1 2 -0.19255652 15.282358140489208 11.753107592968126 6.666028619961198 0 0 0
1983 1 2 -0.19255652 15.299931697862823 10.82831629156565 5.6568704887145325 0 0 0
1989 1 2 -0.19255652 12.077014060685874 15.640363514082237 6.327739767270943 0 0 0
2019 1 4 0.15834348 11.002063685477085 14.77591726101192 4.614315713798134 0 0 0
2025 1 4 0.15834348 14.382310557708443 12.258469007665612 6.845929181464175 0 0 0
2031 1 4 0.15834348 14.500231311049134 10.596589184102704 5.068468032662571 0 0 0
2037 1 4 0.15834348 12.86578236478143 14.868911437492203 6.49888822729769 0 0 0
2084 1 3 -0.60255652 15.74459358749241 15.535534325207918 7.297030113221184 0 0 0
2118 1 5 0.15704348 16.76410008062717 15.79981290328948 7.4412004866469275 0 0 0
2130 1 5 0.15704348 15.194967187540524 16.41920949133161 6.843542004563978 0 0 0
2154 1 5 0.15704348 15.724925606583243 14.687056020639014 6.599259442263033 0 0 0
2163 1 6 -0.30095652 10.337349755921625 16.689093227689863 5.4919754831382255 0 0 0
2169 1 6 -0.30095652 16.515025276255912 11.780074762645553 7.298418892662151 0 0 0
2175 1 6 -0.30095652 16.572741915663872 10.297884298915463 5.625412908604104 0 0 0
2181 1 6 -0.30095652 11.924659092240573 16.78578288382208 7.074398438453451 0 0 0
1934 1 7 0.73604348 8.769565126454841 17.0901095998788 4.240831019559374 0 -1 0
1947 1 1 0.43374348 10.853606930195067 17.390421584373783 6.475825845406401 0 -1 0
1943 1 7 0.73604348 13.081349808670199 17.40235571840411 8.575803331928967 0 -1 0
2227 5 8 0.418 20.811305166779874 12.423848977274295 8.038850511499772 0 0 0
2228 5 11 -0.6830000000000001 21.748457550152047 12.589000450122292 8.26145469713446 0 0 0
566 1 2 -0.19255652 23.89702932784549 13.844958301387749 2.068081572166952 -1 0 0
567 1 2 -0.19255652 23.79076758568284 14.835591430173345 2.958223161996839 -1 0 0
576 1 4 0.15834348 23.16387721883818 13.081790056528826 1.7126078980842667 -1 0 0
577 1 4 0.15834348 22.895530038256037 14.916575549989524 3.633336347381292 -1 0 0
581 1 3 -0.60255652 24.02651143423428 10.159422935083875 1.5257796483284416 -1 0 0
585 1 5 0.15704348 24.760601783042567 10.885225838644226 1.7470556354293847 -1 0 0
588 1 5 0.15704348 24.492422894196217 9.14311983880021 1.5394240929884548 -1 0 0
595 1 5 0.15704348 23.212426229817833 10.132806250935365 2.1089015235783553 -1 0 0
606 1 6 -0.30095652 25.070887701114682 13.990549641059552 1.353652990721688 -1 0 0
607 1 6 -0.30095652 24.950702920797003 15.516109638664624 2.935977260779338 -1 0 0
708 1 3 -0.60255652 23.788214704636356 15.522509013845527 6.913196634075971 -1 0 0
724 1 5 0.15704348 24.77937498573639 15.353198727249703 7.193261330728536 -1 0 0
740 1 5 0.15704348 23.58121228121714 14.940845612608866 5.978580192683756 -1 0 0
760 1 5 0.15704348 23.259849377708424 15.242814829662754 7.75392872810698 -1 0 0
1878 1 2 -0.19255652 19.29993710379856 10.329241583223594 3.2536736767979635 -1 0 0
1883 1 2 -0.19255652 20.35272628708233 10.337285541966585 2.359837057354921 -1 0 0
1890 1 4 0.15834348 19.055216735102352 11.202819355955357 3.82666403962517 -1 0 0
1895 1 4 0.15834348 20.956465227552442 11.18481663415368 2.0681400082871715 -1 0 0
1926 1 6 -0.30095652 18.732913442964687 9.079655199521026 3.312416377392805 -1 0 0
1931 1 6 -0.30095652 20.22664706144831 9.118786587235324 1.6797472997680842 -1 0 0
1937 1 7 0.73604348 17.09565868083297 12.959257090637237 8.769978544076034 -1 0 0
1953 1 1 0.43374348 17.257573512663253 10.865811695599154 6.5969796057006524 -1 0 0
1997 1 2 -0.19255652 20.064117403947694 15.040693616843763 6.898345885817154 -1 0 0
2011 1 2 -0.19255652 19.005329667198918 14.188160233994259 6.963625409779798 -1 0 0
2045 1 4 0.15834348 20.794803150161954 15.076220378949035 6.122358731096425 -1 0 0
2059 1 4 0.15834348 18.74480366453678 13.50940790972666 6.168003692808834 -1 0 0
2073 1 3 -0.60255652 18.687534883679533 10.61732533112743 6.823363767663157 -1 0 0
2099 1 5 0.15704348 19.24420934325187 10.55340965418273 5.915917965818294 -1 0 0
2101 1 5 0.15704348 18.884710726011917 9.596638503202502 7.35225465471961 -1 0 0
2147 1 5 0.15704348 18.993726349294136 11.293763792397161 7.560140294140475 -1 0 0
2189 1 6 -0.30095652 20.203991704883695 15.656060040195472 8.135056052793804 -1 0 0
2203 1 6 -0.30095652 18.57772977983286 14.184727589105043 8.250835439767908 -1 0 0
2230 5 9 0.04 22.36119418957218 10.89184713228212 9.292485023208629 0 0 0
1961 1 1 0.43374348 19.23217127250646 15.136849481458643 8.900358945412098 -1 0 0
1944 1 7 0.73604348 21.406591168849832 17.088366229869994 8.641759109296784 -1 -1 0
559 1 1 0.43374348 25.66178837371632 15.015806718883944 1.9851080416703022 -1 0 0
560 1 2 -0.19255652 28.64355448610668 10.66821102502019 1.8999324418122405 -1 0 0
562 1 2 -0.19255652 27.801917509170632 11.742454215599434 1.7411525212190442 -1 0 0
570 1 4 0.15834348 29.345926514694728 10.402567821770404 2.663202293044817 -1 0 0
572 1 4 0.15834348 27.669781547959857 12.588257241600807 2.393850389884723 -1 0 0
582 1 3 -0.60255652 32.28498180005887 9.849612150939441 1.8777388006544362 -1 0 0
584 1 3 -0.60255652 27.00081563272313 15.545788367265022 1.6015595079212108 -1 0 0
589 1 5 0.15704348 32.79904627819262 10.341854698668167 2.63670543567246 -1 0 0
590 1 5 0.15704348 26.80827645661245 16.487471539583204 1.0533674976292176 -1 0 0
592 1 5 0.15704348 27.600159659420903 14.89366549411241 0.9710565102626666 -1 0 0
594 1 5 0.15704348 31.524473522972233 10.467116609239996 1.5173890596012611 -1 0 0
597 1 5 0.15704348 32.916137149308184 9.653085614812635 1.0211042832331572 -1 0 0
598 1 5 0.15704348 27.548742424250186 15.712415496633898 2.4939278791727295 -1 0 0
600 1 6 -0.30095652 28.56288633579578 9.925173140492728 0.7412160194777084 -1 0 0
602 1 6 -0.30095652 27.074559422540045 11.497525936398578 0.5813262536810111 -1 0 0
628 1 1 0.43374348 32.11158333317482 14.840335346768498 8.39974923621699 -1 0 0
635 1 2 -0.19255652 27.515498526135143 15.034547689877384 5.506954983452693 -1 0 0
641 1 2 -0.19255652 32.19922807643918 11.463155471255352 6.6191884109245684 -1 0 0
644 1 2 -0.19255652 32.1203130673879 10.436707058177916 5.719977405103879 -1 0 0
649 1 2 -0.19255652 28.511578990114014 15.069445085382787 6.3937749237219075 -1 0 0
671 1 4 0.15834348 27.03283372744446 14.134207307183223 5.048299772743417 -1 0 0
677 1 4 0.15834348 31.347476603904738 12.092580053606644 6.939879110789753 -1 0 0
680 1 4 0.15834348 31.242097483894568 10.045583218465783 5.122441553047884 -1 0 0
685 1 4 0.15834348 29.184076995644716 14.246729709734407 6.6430080117729045 -1 0 0
718 1 3 -0.60255652 32.5950171282297 15.235237318116736 7.016391441418083 -1 0 0
746 1 5 0.15704348 33.28203266216704 16.019197223923747 6.990360640348549 -1 0 0
755 1 5 0.15704348 31.720625464181687 15.464254264208202 6.433207304333921 -1 0 0
772 1 5 0.15704348 33.11311366994583 14.336378878212788 6.6613514343036115 -1 0 0
779 1 6 -0.30095652 26.9843176606325 16.262892773876608 5.467291456382834 -1 0 0
785 1 6 -0.30095652 33.46525906213481 11.482892910102473 7.037518308200969 -1 0 0
788 1 6 -0.30095652 33.39620891356565 9.945267662302031 5.580290790322635 -1 0 0
793 1 6 -0.30095652 28.508163543101304 16.26158391100121 7.031038833552842 -1 0 0
867 1 3 -0.60255652 1.8618955981144456 23.964180074337527 1.4481591058989678 0 -1 0
868 1 5 0.15704348 1.2813589455965368 24.117751963682377 0.5392481028673288 0 -1 0
869 1 5 0.15704348 1.1006540410631893 23.375936942174523 2.1009537673907572 0 -1 0
870 1 5 0.15704348 2.855306960747201 23.362721993091093 1.1171926281147748 0 -1 0
884 1 2 -0.19255652 1.8620887933851864 22.052344983846336 5.870225064084755 0 -1 0
886 1 2 -0.19255652 1.8813109805615207 23.020707515719376 4.898634096326325 0 -1 0
894 1 4 0.15834348 2.525184184460956 21.250381787942423 6.093309030029223 0 -1 0
896 1 4 0.15834348 2.6131821930452444 23.242727839698766 4.17203987017622 0 -1 0
924 1 6 -0.30095652 0.7583153744429023 22.228578307160557 6.640786500969786 0 -1 0
926 1 6 -0.30095652 0.7526033140924359 23.71337976772278 5.0368923479278145 0 -1 0
1044 1 1 0.43374348 2.187424240924073 19.16170224880869 8.218215002223692 0 -1 0
1074 1 3 -0.60255652 1.6626525317174525 18.596350525425883 6.926455557496213 0 -1 0
1082 1 5 0.15704348 0.942490097189717 19.293422863964963 6.4910432035911425 0 -1 0
1084 1 5 0.15704348 1.1690998688199843 17.598485339189182 7.138149308091139 0 -1 0
1092 1 5 0.15704348 2.4243581533484804 18.366703992932692 6.2136109877300605 0 -1 0
1261 1 2 -0.19255652 5.537900141636205 23.616751359858434 1.7210653217670406 0 -1 0
1263 1 2 -0.19255652 6.455135609477579 22.57832908145915 1.7999949687223302 0 -1 0
1271 1 4 0.15834348 4.931198412391527 24.00777838553854 2.5832330014149107 0 -1 0
1273 1 4 0.15834348 6.773125958389481 22.101572260959546 2.7400369956519666 0 -1 0
1301 1 6 -0.30095652 5.482019273661469 24.061799116928686 0.41606032341169924 0 -1 0
1303 1 6 -0.30095652 7.045882385552036 22.423725789746562 0.5586721683820954 0 -1 0
1901 1 3 -0.60255652 7.2385484656855335 18.631243118443642 1.7732956095061079 0 -1 0
1910 1 5 0.15704348 6.91198894165191 19.192894838666355 0.9177438571919222 0 -1 0
1912 1 5 0.15704348 6.628864532432794 18.7717065659968 2.6111858232100733 0 -1 0
1920 1 5 0.15704348 7.212574096799144 17.603741599148805 1.4537964558336813 0 -1 0
1972 1 2 -0.19255652 6.6024413422718435 18.93071480770022 5.299712475717442 0 -1 0
1992 1 2 -0.19255652 5.520172135821326 18.96459953358152 6.116393046511781 0 -1 0
2020 1 4 0.15834348 6.989470760728693 19.820276358078022 4.75536597883127 0 -1 0
2040 1 4 0.15834348 4.902159053483834 19.80602619067443 6.2726283812916925 0 -1 0
2164 1 6 -0.30095652 7.144589527269081 17.716595403612555 5.286541984157461 0 -1 0
2184 1 6 -0.30095652 5.604287324653353 17.787820112168887 6.808194392184739 0 -1 0
862 1 1 0.43374348 2.3034919286443127 25.276551765027477 1.9222530751642535 0 -1 0
875 1 7 0.73604348 0.3190637099737046 25.35601863012805 4.0966955439843 0 -1 0
1033 1 7 0.73604348 33.774028344379 21.23263358004042 8.346717139714718 -1 -1 0
1117 1 1 0.43374348 6.506958772598058 23.397553716740155 33.561926309468404 0 -1 -1
1871 1 1 0.43374348 8.663494203989325 19.01049930852354 2.0840178938389435 0 -1 0
1264 1 2 -0.19255652 14.363668094049803 23.76837213450774 3.3792756635091106 0 -1 0
1269 1 2 -0.19255652 13.427821397691234 23.78323029711151 2.316524269282923 0 -1 0
1274 1 4 0.15834348 14.466566335335104 22.945785554782372 4.116893937408273 0 -1 0
1279 1 4 0.15834348 12.72879150443478 23.026293941704544 2.064759818780888 0 -1 0
1280 1 3 -0.60255652 9.951247200156542 23.85193866701036 1.2374040156106625 0 -1 0
1286 1 5 0.15704348 9.711570990929276 23.05738343763673 2.00207395369386 0 -1 0
1287 1 5 0.15704348 9.064098455345144 24.394220948269005 0.9435945947847981 0 -1 0
1296 1 5 0.15704348 10.729194782640251 24.431999951878364 1.7004677059275712 0 -1 0
1304 1 6 -0.30095652 15.068006090893958 24.950464970737936 3.1605095371363605 0 -1 0
1309 1 6 -0.30095652 13.681641186931621 24.9251048641133 1.5195855238167963 0 -1 0
1416 1 3 -0.60255652 15.659712766630202 24.068673881624253 6.82562137813112 0 -1 0
1432 1 5 0.15704348 15.275687079564797 23.20837756260993 7.423963209174376 0 -1 0
1436 1 5 0.15704348 15.02115250762774 24.199783447884478 5.972715045502079 0 -1 0
1468 1 5 0.15704348 15.757885471603215 24.960225006248738 7.4254255386742525 0 -1 0
1879 1 2 -0.19255652 10.49955989978153 20.10778904735151 2.1241126601096427 0 -1 0
1882 1 2 -0.19255652 10.56841946375707 19.153739359782683 3.032687704249485 0 -1 0
1891 1 4 0.15834348 11.22811838529728 20.88008926734865 2.0677833396691883 0 -1 0
1894 1 4 0.15834348 11.426625062384742 19.042765767777052 3.62648588921104 0 -1 0
1927 1 6 -0.30095652 9.24052907916059 20.051375872468224 1.497322914577042 0 -1 0
1930 1 6 -0.30095652 9.355275450405832 18.471260820373104 3.060092834704203 0 -1 0
1999 1 2 -0.19255652 14.030605157468365 19.592189496679104 6.7342923951240445 0 -1 0
2009 1 2 -0.19255652 14.908419160419388 20.59430108474357 6.741237578238665 0 -1 0
2047 1 4 0.15834348 13.266907907404212 19.359173966017643 5.990179173327791 0 -1 0
2057 1 4 0.15834348 15.127296172010976 21.378497110152512 6.0067594704436855 0 -1 0
2067 1 3 -0.60255652 10.302899977825602 18.737150972402596 6.850954318001971 0 -1 0
2089 1 5 0.15704348 9.261139809061392 18.830928001966193 6.562049305489191 0 -1 0
2111 1 5 0.15704348 10.955937313401803 19.485391874047714 6.291028345583366 0 -1 0
2137 1 5 0.15704348 10.53575275723533 18.80311331113046 8.005262728641796 0 -1 0